/*--------------------------------*- C++ -*----------------------------------*\
  =========                 |
  \      /  F ield         | OpenFOAM: The Open Source CFD Toolbox
   \    /   O peration     |
    \  /    A nd           | Web:      www.OpenFOAM.org
     \/     M anipulation  |
-------------------------------------------------------------------------------
Description
    volScalarField file alpha_write_2 written by fluidfoam

\*---------------------------------------------------------------------------*/

FoamFile
{
    version     2.0;
    format      ascii;
    class       volScalarField;
    location    "0";
    object      alpha_write_2;
}
// * * * * * * * * * * * * * * * * * * * * * * * * * * * * * * * * * * * * * //

dimensions      [0 2 -1 0 0 0 0];

internalField   nonuniform List<scalar>
64
(
1.015830000000000
1.024090000000000
1.031700000000000
1.021720000000000
1.026310000000000
1.015040000000000
1.018750000000000
1.034810000000000
1.030010000000000
1.022330000000000
1.022020000000000
1.026470000000000
1.017650000000000
1.016280000000000
1.034020000000000
1.018070000000000
1.076690000000000
1.069330000000000
1.081130000000000
1.067810000000000
1.077440000000000
1.069220000000000
1.065130000000000
1.076470000000000
1.083650000000000
1.071810000000000
1.082820000000000
1.076880000000000
1.072860000000000
1.082990000000000
1.078900000000000
1.069570000000000
1.134250000000000
1.115240000000000
1.117220000000000
1.132680000000000
1.117340000000000
1.130020000000000
1.120940000000000
1.127930000000000
1.123530000000000
1.125020000000000
1.121290000000000
1.123740000000000
1.128200000000000
1.129050000000000
1.130500000000000
1.131270000000000
1.171400000000000
1.184650000000000
1.178590000000000
1.168020000000000
1.182520000000000
1.178940000000000
1.172550000000000
1.176300000000000
1.174500000000000
1.170450000000000
1.183790000000000
1.170180000000000
1.175800000000000
1.177960000000000
1.176400000000000
1.175190000000000
)
;

boundaryField
{
defaultFaces
{
type            empty;
}
}
